 Gaussian 16, Revision A.03,
 Gaussian 16:  ES64L-G16RevA.03 25-Dec-2016

 ---------------------------------------------------------
 # Opt=ModRedundant B3LYP/6-31G* EmpiricalDispersion=GD3BJ
 ---------------------------------------------------------

 ---------------------------------------------------------------
 Relaxed scan of 5-4-10-12 dihedral at B3LYP-D3(BJ)/6-31G* level
 ---------------------------------------------------------------
 Symbolic Z-matrix:
 Charge =  0 Multiplicity = 1

 SCF Done:  E(RB3LYP) =  -762.017600808     A.U. after   15 cycles
 Optimization completed.
    -- Stationary point found.
 SCF Done:  E(RB3LYP) =  -762.017229571     A.U. after   12 cycles
 SCF Done:  E(RB3LYP) =  -762.017293112     A.U. after   12 cycles
 SCF Done:  E(RB3LYP) =  -762.017397628     A.U. after   11 cycles
 SCF Done:  E(RB3LYP) =  -762.017404146     A.U. after    9 cycles
 SCF Done:  E(RB3LYP) =  -762.017407466     A.U. after    8 cycles
 SCF Done:  E(RB3LYP) =  -762.017407765     A.U. after    7 cycles
 Optimization completed.
 SCF Done:  E(RB3LYP) =  -762.016632909     A.U. after   11 cycles
 SCF Done:  E(RB3LYP) =  -762.016806661     A.U. after   11 cycles
 SCF Done:  E(RB3LYP) =  -762.016808801     A.U. after    9 cycles
 SCF Done:  E(RB3LYP) =  -762.017145495     A.U. after    8 cycles
 SCF Done:  E(RB3LYP) =  -762.016801458     A.U. after   11 cycles
 SCF Done:  E(RB3LYP) =  -762.017186050     A.U. after   12 cycles
 SCF Done:  E(RB3LYP) =  -762.017197599     A.U. after   10 cycles
 SCF Done:  E(RB3LYP) =  -762.017153178     A.U. after   12 cycles
 SCF Done:  E(RB3LYP) =  -762.017455585     A.U. after   12 cycles
 SCF Done:  E(RB3LYP) =  -762.017458370     A.U. after    9 cycles
    -- Stationary point found.
 SCF Done:  E(RB3LYP) =  -762.017385524     A.U. after   11 cycles
 SCF Done:  E(RB3LYP) =  -762.017600346     A.U. after   12 cycles
 SCF Done:  E(RB3LYP) =  -762.017601239     A.U. after    8 cycles
 Optimization completed.
    -- Stationary point found.

                         Standard orientation:
 ---------------------------------------------------------------------
 Center     Atomic      Atomic             Coordinates (Angstroms)
 Number     Number       Type             X           Y           Z
 ---------------------------------------------------------------------
      1          6           0       -3.002094   -0.727286    0.202727
      2          6           0       -3.181037    0.587515   -0.178200
      3          6           0       -1.893796    1.172947   -0.307216
      4          6           0       -0.951251    0.201002    0.002048
      5          7           0       -1.651169   -0.953777    0.300596
      6          1           0       -1.226098   -1.802332    0.643007
      7          1           0       -3.715006   -1.511895    0.408539
      8          1           0       -4.131619    1.070672   -0.356710
      9          1           0       -1.665057    2.180846   -0.624003
     10          6           0        0.492807    0.264507    0.033865
     11          6           0        1.295819    1.364220    0.233116
     12         16           0        1.478069   -1.167164   -0.229648
     13          6           0        2.688901    1.064996    0.187891
     14          1           0        0.891950    2.350106    0.432708
     15          6           0        2.947867   -0.258541   -0.035257
     16          1           0        3.467447    1.806037    0.332454
     17          1           0        3.904157   -0.758524   -0.099657
 ---------------------------------------------------------------------

 The electronic state is 1-A.
 Alpha  occ. eigenvalues --  -88.90520 -14.38059 -10.22237 -10.21705 -10.21107
 Alpha  occ. eigenvalues --  -10.20820 -10.19154 -10.18726 -10.17114 -10.17061
 Alpha  occ. eigenvalues --   -7.96652  -5.93062  -5.92699  -5.92340  -0.97623
 Alpha  occ. eigenvalues --   -0.87438  -0.77308  -0.75927  -0.72926  -0.69198
 Alpha  occ. eigenvalues --   -0.59520  -0.58070  -0.57325  -0.54542  -0.51844
 Alpha  occ. eigenvalues --   -0.47419  -0.43284  -0.41774  -0.41325  -0.39968
 Alpha  occ. eigenvalues --   -0.38983  -0.38222  -0.37122  -0.36635  -0.33984
 Alpha  occ. eigenvalues --   -0.25878  -0.24992  -0.24246  -0.18755
 Alpha virt. eigenvalues --   -0.02322   0.02451   0.04962   0.06690   0.07625
 Alpha virt. eigenvalues --    0.10822   0.11146   0.12876   0.14096   0.15692
 Alpha virt. eigenvalues --    0.16666   0.17297   0.19858   0.22102   0.24181

 Mulliken charges:
               1
     1  C    0.044986
     2  C   -0.186710
     3  C   -0.196135
     4  C    0.323375
     5  N   -0.630025
     6  H    0.337055
     7  H    0.145860
     8  H    0.127722
     9  H    0.127800
    10  C   -0.209314
    11  C   -0.116103
    12  S    0.224525
    13  C   -0.103139
    14  H    0.140580
    15  C   -0.341476
    16  H    0.141194
    17  H    0.169806
 Sum of Mulliken charges =  -0.00000

 Dipole moment (field-independent basis, Debye):
    X=              0.2481    Y=             -0.7916    Z=              0.6847  Tot=              1.0757
 Quadrupole moment (field-independent basis, Debye-Ang):
   XX=            -57.0639   YY=            -57.4421   ZZ=            -68.9840
   XY=              3.0298   XZ=             -0.4694   YZ=             -1.8378

 1\1\GINC-Q37\Scan\RB3LYP\6-31G(d)\C8H7N1S1\MINGDAZHANG\15-Apr-2022\0\\
 # Opt=ModRedundant B3LYP/6-31G* EmpiricalDispersion=GD3BJ\\Relaxed sca
 n of 5-4-10-12 dihedral at B3LYP-D3(BJ)/6-31G* level\\0,1\C,-3.1294067
 692,0.8534903921,0.1647170329\C,-3.0941537125,-0.5045353797,-0.0809475
 532\C,-1.729450008,-0.8942586063,-0.1263971131\C,-0.9558562101,0.23865
 42334,0.089873504\N,-1.8326915954,1.2919396901,0.2750200553\H,-1.54973
 87275,2.2557590362,0.3697089579\H,-3.9593947013,1.5362478344,0.2704328
 606\H,-3.9544545424,-1.1481441514,-0.2016259316\H,-1.3413810029,-1.893

 Normal termination of Gaussian 16 at Fri Apr 15 10:23:41 2022.
