 Gaussian 16, Revision C.01,
 Gaussian 16:  ES64L-G16RevC.01  3-Jul-2019

 -----------------------------------------------
 #P B3LYP/def2TZVP SCRF=(SMD,Solvent=Chloroform)
 -----------------------------------------------

 ---------------------------------------
 B3LYP/def2-TZVP with chloroform solvent
 ---------------------------------------
 Symbolic Z-matrix:
 Charge =  0 Multiplicity = 1

                         Standard orientation:
 ---------------------------------------------------------------------
 Center     Atomic      Atomic             Coordinates (Angstroms)
 Number     Number       Type             X           Y           Z
 ---------------------------------------------------------------------
      1          6           0       -3.001454   -0.727759    0.202431
      2          6           0       -3.181173    0.586994   -0.178118
      3          6           0       -1.894215    1.173164   -0.307008
      4          6           0       -0.951322    0.201719    0.002152
      5          7           0       -1.650506   -0.953338    0.301096
      6          1           0       -1.224633   -1.802167    0.641769
      7          1           0       -3.714253   -1.512378    0.408469
      8          1           0       -4.132105    1.069513   -0.356456
      9          1           0       -1.665715    2.181184   -0.623539
     10          6           0        0.492796    0.265440    0.033816
     11          6           0        1.296351    1.364458    0.232861
     12         16           0        1.477288   -1.167021   -0.229673
     13          6           0        2.689588    1.064282    0.187768
     14          1           0        0.893710    2.350860    0.432346
     15          6           0        2.947441   -0.259413   -0.035287
     16          1           0        3.468266    1.805124    0.332336
     17          1           0        3.903583   -0.759739   -0.099531
 ---------------------------------------------------------------------

 SCF Done:  E(RB3LYP) =  -762.171084085     A.U. after   13 cycles

 The electronic state is 1-A.
 Alpha  occ. eigenvalues --  -88.88533 -14.36118 -10.21262 -10.20863 -10.19770
 Alpha  occ. eigenvalues --  -10.19543 -10.17820 -10.17526 -10.16087 -10.15996
 Alpha  occ. eigenvalues --   -7.96115  -5.92357  -5.92009  -5.91752  -0.98064
 Alpha  occ. eigenvalues --   -0.87859  -0.77830  -0.76491  -0.73288  -0.69661
 Alpha  occ. eigenvalues --   -0.59779  -0.58495  -0.57655  -0.54737  -0.52216
 Alpha  occ. eigenvalues --   -0.47700  -0.43650  -0.42323  -0.42070  -0.40338
 Alpha  occ. eigenvalues --   -0.39606  -0.38737  -0.37990  -0.37173  -0.34421
 Alpha  occ. eigenvalues --   -0.26989  -0.25896  -0.25456  -0.19960
 Alpha virt. eigenvalues --   -0.03768   0.01269   0.02945   0.04135   0.05001
 Alpha virt. eigenvalues --    0.07111   0.07706   0.08451   0.09307   0.10112
 Alpha virt. eigenvalues --    0.10392   0.11756   0.11856   0.12692   0.14218

 Mulliken charges:
               1
     1  C   -0.103298
     2  C   -0.189667
     3  C   -0.283400
     4  C    0.262824
     5  N   -0.266118
     6  H    0.255540
     7  H    0.165329
     8  H    0.140635
     9  H    0.138563
    10  C    0.014506
    11  C   -0.239214
    12  S    0.004005
    13  C   -0.159417
    14  H    0.145357
    15  C   -0.207280
    16  H    0.146558
    17  H    0.175077
 Sum of Mulliken charges =  -0.00000

 Dipole moment (field-independent basis, Debye):
    X=              0.5054    Y=             -1.1111    Z=              0.8056  Tot=              1.4625
 Quadrupole moment (field-independent basis, Debye-Ang):
   XX=            -57.7033   YY=            -57.4326   ZZ=            -70.9516
   XY=              3.6995   XZ=             -0.5823   YZ=             -2.0719

 Normal termination of Gaussian 16 at Fri Apr 15 12:00:04 2022.
