 Gaussian 16, Revision C.01,
 Gaussian 16:  ES64L-G16RevC.01  3-Jul-2019

 -----------------
 #P B3LYP/def2TZVP
 -----------------

 ---------------------------
 B3LYP/def2-TZVP with vaccum
 ---------------------------
 Symbolic Z-matrix:
 Charge =  0 Multiplicity = 1

                         Standard orientation:
 ---------------------------------------------------------------------
 Center     Atomic      Atomic             Coordinates (Angstroms)
 Number     Number       Type             X           Y           Z
 ---------------------------------------------------------------------
      1          6           0       -3.001454   -0.727759    0.202431
      2          6           0       -3.181173    0.586994   -0.178118
      3          6           0       -1.894215    1.173164   -0.307008
      4          6           0       -0.951322    0.201719    0.002152
      5          7           0       -1.650506   -0.953338    0.301096
      6          1           0       -1.224633   -1.802167    0.641769
      7          1           0       -3.714253   -1.512378    0.408469
      8          1           0       -4.132105    1.069513   -0.356456
      9          1           0       -1.665715    2.181184   -0.623539
     10          6           0        0.492796    0.265440    0.033816
     11          6           0        1.296351    1.364458    0.232861
     12         16           0        1.477288   -1.167021   -0.229673
     13          6           0        2.689588    1.064282    0.187768
     14          1           0        0.893710    2.350860    0.432346
     15          6           0        2.947441   -0.259413   -0.035287
     16          1           0        3.468266    1.805124    0.332336
     17          1           0        3.903583   -0.759739   -0.099531
 ---------------------------------------------------------------------

 SCF Done:  E(RB3LYP) =  -762.156448066     A.U. after   15 cycles

 The electronic state is 1-A.
 Alpha  occ. eigenvalues --  -88.88688 -14.36616 -10.21408 -10.21030 -10.20102
 Alpha  occ. eigenvalues --  -10.19916 -10.18178 -10.17794 -10.16300 -10.16239
 Alpha  occ. eigenvalues --   -7.96265  -5.92509  -5.92162  -5.91898  -0.98414
 Alpha  occ. eigenvalues --   -0.88007  -0.78117  -0.76694  -0.73491  -0.69930
 Alpha  occ. eigenvalues --   -0.60200  -0.58837  -0.58070  -0.55145  -0.52572
 Alpha  occ. eigenvalues --   -0.48144  -0.44081  -0.42495  -0.42449  -0.40720
 Alpha  occ. eigenvalues --   -0.39922  -0.39089  -0.38076  -0.37454  -0.34647
 Alpha  occ. eigenvalues --   -0.27045  -0.25946  -0.25490  -0.19997
 Alpha virt. eigenvalues --   -0.03868   0.00804   0.02758   0.03297   0.04519
 Alpha virt. eigenvalues --    0.06108   0.07039   0.07587   0.08718   0.09420
 Alpha virt. eigenvalues --    0.09624   0.10972   0.11773   0.13051   0.13430

 Mulliken charges:
               1
     1  C   -0.070129
     2  C   -0.150957
     3  C   -0.231283
     4  C    0.267089
     5  N   -0.266452
     6  H    0.219131
     7  H    0.133187
     8  H    0.110028
     9  H    0.108014
    10  C    0.025114
    11  C   -0.208839
    12  S    0.004743
    13  C   -0.127562
    14  H    0.115105
    15  C   -0.182216
    16  H    0.115360
    17  H    0.139668
 Sum of Mulliken charges =  -0.00000

 Dipole moment (field-independent basis, Debye):
    X=              0.3241    Y=             -0.8488    Z=              0.6209  Tot=              1.1005
 Quadrupole moment (field-independent basis, Debye-Ang):
   XX=            -58.9852   YY=            -58.5695   ZZ=            -70.6473
   XY=              2.8259   XZ=             -0.4428   YZ=             -1.8444

 Normal termination of Gaussian 16 at Fri Apr 15 12:01:25 2022.
