 Gaussian 16, Revision C.01,
 Gaussian 16:  ES64L-G16RevC.01  3-Jul-2019

 -------------------------------------------------
 # Opt Freq B3LYP/6-31G* EmpiricalDispersion=GD3BJ
 -------------------------------------------------

 -------------------------------------
 Optimize at B3LYP-D3(BJ)/6-31G* level
 -------------------------------------
 Symbolic Z-matrix:
 Charge =  0 Multiplicity = 1

 SCF Done:  E(RB3LYP) =  -762.004872133     A.U. after   15 cycles
 SCF Done:  E(RB3LYP) =  -762.016104334     A.U. after   13 cycles
 SCF Done:  E(RB3LYP) =  -762.017342673     A.U. after   12 cycles
 SCF Done:  E(RB3LYP) =  -762.017541308     A.U. after   12 cycles
 SCF Done:  E(RB3LYP) =  -762.017560281     A.U. after   11 cycles
 SCF Done:  E(RB3LYP) =  -762.017587323     A.U. after   10 cycles
 SCF Done:  E(RB3LYP) =  -762.017595726     A.U. after    9 cycles
 SCF Done:  E(RB3LYP) =  -762.017599217     A.U. after    9 cycles
 SCF Done:  E(RB3LYP) =  -762.017600808     A.U. after    8 cycles
 Optimization completed.
    -- Stationary point found.
 Normal termination of Gaussian 16 at Fri Apr 15 09:52:13 2022.

 --------------------------------------------------------------------
 #N Geom=AllCheck Guess=TCheck SCRF=Check GenChk RB3LYP/6-31G(d) Freq
 --------------------------------------------------------------------

 Structure from the checkpoint file:  "mol_opt.chk"
 -------------------------------------
 Optimize at B3LYP-D3(BJ)/6-31G* level
 -------------------------------------
 Charge =  0 Multiplicity = 1

                         Standard orientation:
 ---------------------------------------------------------------------
 Center     Atomic      Atomic             Coordinates (Angstroms)
 Number     Number       Type             X           Y           Z
 ---------------------------------------------------------------------
      1          6           0       -3.001454   -0.727759    0.202431
      2          6           0       -3.181173    0.586994   -0.178118
      3          6           0       -1.894215    1.173164   -0.307008
      4          6           0       -0.951322    0.201719    0.002152
      5          7           0       -1.650506   -0.953338    0.301096
      6          1           0       -1.224633   -1.802167    0.641769
      7          1           0       -3.714253   -1.512378    0.408469
      8          1           0       -4.132105    1.069513   -0.356456
      9          1           0       -1.665715    2.181184   -0.623539
     10          6           0        0.492796    0.265440    0.033816
     11          6           0        1.296351    1.364458    0.232861
     12         16           0        1.477288   -1.167021   -0.229673
     13          6           0        2.689588    1.064282    0.187768
     14          1           0        0.893710    2.350860    0.432346
     15          6           0        2.947441   -0.259413   -0.035287
     16          1           0        3.468266    1.805124    0.332336
     17          1           0        3.903583   -0.759739   -0.099531
 ---------------------------------------------------------------------

 SCF Done:  E(RB3LYP) =  -762.017600808     A.U. after    1 cycles

 The electronic state is 1-A.
 Alpha  occ. eigenvalues --  -88.90520 -14.38058 -10.22237 -10.21702 -10.21108
 Alpha  occ. eigenvalues --  -10.20818 -10.19155 -10.18727 -10.17112 -10.17059
 Alpha  occ. eigenvalues --   -7.96652  -5.93062  -5.92699  -5.92340  -0.97626
 Alpha  occ. eigenvalues --   -0.87439  -0.77309  -0.75929  -0.72925  -0.69200
 Alpha  occ. eigenvalues --   -0.59520  -0.58073  -0.57325  -0.54543  -0.51848
 Alpha  occ. eigenvalues --   -0.47419  -0.43282  -0.41775  -0.41331  -0.39971
 Alpha  occ. eigenvalues --   -0.38976  -0.38223  -0.37123  -0.36636  -0.33984
 Alpha  occ. eigenvalues --   -0.25881  -0.24990  -0.24245  -0.18758
 Alpha virt. eigenvalues --   -0.02318   0.02446   0.04962   0.06693   0.07623
 Alpha virt. eigenvalues --    0.10823   0.11147   0.12879   0.14098   0.15693
 Alpha virt. eigenvalues --    0.16668   0.17299   0.19855   0.22108   0.24185

 Mulliken charges:
               1
     1  C    0.045065
     2  C   -0.186761
     3  C   -0.196186
     4  C    0.323546
     5  N   -0.630051
     6  H    0.337089
     7  H    0.145855
     8  H    0.127716
     9  H    0.127785
    10  C   -0.209339
    11  C   -0.116125
    12  S    0.224437
    13  C   -0.103171
    14  H    0.140571
    15  C   -0.341429
    16  H    0.141199
    17  H    0.169798
 Sum of Mulliken charges =   0.00000

 Dipole moment (field-independent basis, Debye):
    X=              0.2501    Y=             -0.7918    Z=              0.6829  Tot=              1.0751
 Quadrupole moment (field-independent basis, Debye-Ang):
   XX=            -57.0658   YY=            -57.4386   ZZ=            -68.9875
   XY=              3.0296   XZ=             -0.4649   YZ=             -1.8326

  Exact polarizability:     167.466       2.481     103.985       1.971      -1.308      43.142
 Approx polarizability:     261.195       4.069     193.717       3.513      -1.297      69.239

                      1                      2                      3
                      A                      A                      A
 Frequencies --     52.1115               113.0359               125.9134
 Red. masses --      4.1961                 4.8705                 4.9132
 Frc consts  --      0.0067                 0.0367                 0.0459
 IR Inten    --      1.9901                 1.0088                 0.5578

                      4                      5                      6
                      A                      A                      A
 Frequencies --    299.6174               350.6894               396.4488
 Red. masses --      5.9743                 6.9029                 5.6962
 Frc consts  --      0.3160                 0.5002                 0.5275
 IR Inten    --      1.6702                 0.6118                 1.2950

                      7                      8                      9
                      A                      A                      A
 Frequencies --    469.1015               504.0141               579.1495
 Red. masses --      1.5010                 3.8907                 3.1353
 Frc consts  --      0.1946                 0.5823                 0.6196
 IR Inten    --     53.4927                12.1380                 0.2989

                     10                     11                     12
                      A                      A                      A
 Frequencies --    623.7315               646.3219               676.5263
 Red. masses --      2.9978                 7.2705                 2.2808
 Frc consts  --      0.6871                 1.7894                 0.6150
 IR Inten    --      0.7618                 0.5334                 7.1097

                     13                     14                     15
                      A                      A                      A
 Frequencies --    690.5096               709.2103               744.8004
 Red. masses --      1.3051                 1.3606                 6.8131
 Frc consts  --      0.3666                 0.4032                 2.2268
 IR Inten    --     57.5577                44.9149                 0.8676

                     16                     17                     18
                      A                      A                      A
 Frequencies --    795.0034               827.1444               849.0244
 Red. masses --      1.2700                 1.3510                 4.4723
 Frc consts  --      0.4729                 0.5446                 1.8994
 IR Inten    --     43.9113                10.2117                30.6986

                     19                     20                     21
                      A                      A                      A
 Frequencies --    864.8178               896.5617               906.5178
 Red. masses --      1.2913                 5.7037                 1.3213
 Frc consts  --      0.5690                 2.7013                 0.6397
 IR Inten    --      0.2074                 0.9649                 0.1890

                     22                     23                     24
                      A                      A                      A
 Frequencies --    912.6685              1029.4224              1064.6137
 Red. masses --      5.1132                 2.0961                 1.3473
 Frc consts  --      2.5094                 1.3087                 0.8997
 IR Inten    --      7.9716                 6.0213                24.6682

                     25                     26                     27
                      A                      A                      A
 Frequencies --   1077.8735              1117.1351              1142.6998
 Red. masses --      1.6656                 1.1415                 1.9133
 Frc consts  --      1.1401                 0.8393                 1.4719
 IR Inten    --      0.4512                 6.8073                41.3626

                     28                     29                     30
                      A                      A                      A
 Frequencies --   1153.0111              1238.3650              1293.8002
 Red. masses --      1.7184                 1.7822                 1.5280
 Frc consts  --      1.3460                 1.6103                 1.5070
 IR Inten    --      3.4637                15.4092                 1.5779

                     31                     32                     33
                      A                      A                      A
 Frequencies --   1312.5893              1393.5215              1455.6120
 Red. masses --      2.6043                 2.3937                 3.8788
 Frc consts  --      2.6436                 2.7388                 4.8421
 IR Inten    --      6.7286                 0.5274                 2.0756

                     34                     35                     36
                      A                      A                      A
 Frequencies --   1463.6781              1487.4699              1515.9852
 Red. masses --      3.2697                 3.9769                 5.2040
 Frc consts  --      4.1271                 5.1843                 7.0466
 IR Inten    --     10.4934                 1.6959                33.8175

                     37                     38                     39
                      A                      A                      A
 Frequencies --   1584.5937              1637.3374              3219.0443
 Red. masses --      4.1514                 4.9138                 1.0884
 Frc consts  --      6.1416                 7.7614                 6.6449
 IR Inten    --     21.8738                 8.8356                12.1999

                     40                     41                     42
                      A                      A                      A
 Frequencies --   3234.0345              3256.8702              3269.7746
 Red. masses --      1.0955                 1.0897                 1.0963
 Frc consts  --      6.7507                 6.8101                 6.9060
 IR Inten    --      5.0732                 6.0007                 4.6944

                     43                     44                     45
                      A                      A                      A
 Frequencies --   3274.6446              3286.7356              3658.0189
 Red. masses --      1.0969                 1.1032                 1.0804
 Frc consts  --      6.9300                 7.0213                 8.5175
 IR Inten    --      0.6042                 3.0957                43.9525

 - Thermochemistry -
 -------------------
 Temperature   298.150 Kelvin.  Pressure   1.00000 Atm.
 Atom     1 has atomic number  6 and mass  12.00000

 Molecular mass:   149.02992 amu.
 Principal axes and moments of inertia in atomic units:
                           1         2         3
     Eigenvalues --   534.451312416.465822897.74202
           X            0.99995   0.00956   0.00191
           Y           -0.00953   0.99987  -0.01317
           Z           -0.00203   0.01315   0.99991
 This molecule is an asymmetric top.
 Rotational symmetry number  1.
 Warning -- assumption of classical behavior for rotation
           may cause significant error
 Rotational temperatures (Kelvin)      0.16206     0.03584     0.02989
 Rotational constants (GHZ):           3.37681     0.74685     0.62281
 Zero-point vibrational energy     342130.5 (Joules/Mol)
                                   81.77115 (Kcal/Mol)
 Warning -- explicit consideration of   9 degrees of freedom as
           vibrations may cause significant error
 Vibrational temperatures:     74.98   162.63   181.16   431.08   504.56
          (Kelvin)            570.40   674.93   725.16   833.27   897.41
                              929.91   973.37   993.49  1020.40  1071.60
                             1143.83  1190.08  1221.56  1244.28  1289.95
                             1304.28  1313.13  1481.11  1531.74  1550.82
                             1607.31  1644.09  1658.93  1781.73  1861.49
                             1888.52  2004.97  2094.30  2105.91  2140.14
                             2181.16  2279.88  2355.76  4631.49  4653.05
                             4685.91  4704.48  4711.48  4728.88  5263.07

 Zero-point correction=                           0.130311 (Hartree/Particle)
 Thermal correction to Energy=                    0.138494
 Thermal correction to Enthalpy=                  0.139438
 Thermal correction to Gibbs Free Energy=         0.096346
 Sum of electronic and zero-point Energies=           -761.887290
 Sum of electronic and thermal Energies=              -761.879107
 Sum of electronic and thermal Enthalpies=            -761.878163
 Sum of electronic and thermal Free Energies=         -761.921255

                     E (Thermal)             CV                S
                      KCal/Mol        Cal/Mol-Kelvin    Cal/Mol-Kelvin
 Total                   86.906             31.943             90.694
 Electronic               0.000              0.000              0.000
 Translational            0.889              2.981             40.907
 Rotational               0.889              2.981             29.705
 Vibrational             85.129             25.982             20.082
 Vibration     1          0.596              1.977              4.736
 Vibration     2          0.607              1.939              3.216
 Vibration     3          0.611              1.927              3.008
 Vibration     4          0.692              1.674              1.419
 Vibration     5          0.728              1.574              1.163
 Vibration     6          0.763              1.478              0.976
 Vibration     7          0.826              1.319              0.740
 Vibration     8          0.859              1.241              0.648
 Vibration     9          0.936              1.076              0.487

                           ! Non-Optimized Parameters !
 Normal termination of Gaussian 16 at Fri Apr 15 09:53:43 2022.
